REMARK  Name = 969516
REMARK  12 active torsions:
REMARK  status: ('A' for Active; 'I' for Inactive)
REMARK    1  A    between atoms: O_1  and  C_12
REMARK    2  A    between atoms: O_1  and  C_26
REMARK    3  A    between atoms: O_2  and  C_13
REMARK    4  A    between atoms: O_2  and  C_27
REMARK    5  A    between atoms: O_3  and  C_18
REMARK    6  A    between atoms: O_4  and  C_19
REMARK    7  A    between atoms: C_7  and  C_16
REMARK    8  A    between atoms: C_8  and  C_17
REMARK    9  A    between atoms: C_9  and  C_20
REMARK   10  A    between atoms: C_9  and  C_21
REMARK   11  A    between atoms: C_20  and  C_24
REMARK   12  A    between atoms: C_21  and  C_25
REMARK                            x       y       z     vdW  Elec       q    Type
REMARK                         _______ _______ _______ _____ _____    ______ ____
ROOT
ATOM      1  C   UNL     1      -3.517  -5.021  -0.019  0.00  0.00    +0.000 C 
ENDROOT
BRANCH   1   3
ATOM      2  O   UNL     1      -3.908  -2.888   0.975  0.00  0.00    +0.000 OA
ATOM      3  C   UNL     1      -4.169  -3.667   0.060  0.00  0.00    +0.000 C 
BRANCH   3   5
ATOM      4  C   UNL     1      -5.808  -2.143  -0.979  0.00  0.00    +0.000 C 
ATOM      5  C   UNL     1      -5.158  -3.317  -1.002  0.00  0.00    +0.000 C 
BRANCH   4   6
ATOM      6  C   UNL     1      -6.794  -1.734  -1.994  0.00  0.00    +0.000 A 
ATOM      7  C   UNL     1      -7.840  -0.868  -1.621  0.00  0.00    +0.000 A 
ATOM      8  C   UNL     1      -8.794  -0.460  -2.559  0.00  0.00    +0.000 A 
ATOM      9  C   UNL     1      -6.697  -2.148  -3.332  0.00  0.00    +0.000 A 
ATOM     10  C   UNL     1      -8.684  -0.916  -3.877  0.00  0.00    +0.000 A 
ATOM     11  C   UNL     1      -7.646  -1.747  -4.271  0.00  0.00    +0.000 A 
BRANCH   8  12
ATOM     12  O   UNL     1      -9.866   0.364  -2.326  0.00  0.00    +0.000 OA
ATOM     13  C   UNL     1     -10.020   0.856  -0.999  0.00  0.00    +0.000 C 
ENDBRANCH   8  12
BRANCH  10  14
ATOM     14  O   UNL     1      -9.607  -0.547  -4.817  0.00  0.00    +0.000 OA
ATOM     15  H   UNL     1     -10.319   0.013  -4.579  0.00  0.00    +0.000 HD
ENDBRANCH  10  14
ENDBRANCH   4   6
ENDBRANCH   3   5
ENDBRANCH   1   3
BRANCH   1  17
ATOM     16  O   UNL     1      -3.192  -5.694  -2.284  0.00  0.00    +0.000 OA
ATOM     17  C   UNL     1      -2.696  -5.217  -1.263  0.00  0.00    +0.000 C 
BRANCH  17  19
ATOM     18  C   UNL     1      -0.672  -4.022  -0.403  0.00  0.00    +0.000 C 
ATOM     19  C   UNL     1      -1.257  -4.845  -1.285  0.00  0.00    +0.000 C 
BRANCH  18  20
ATOM     20  C   UNL     1       0.761  -3.684  -0.449  0.00  0.00    +0.000 A 
ATOM     21  C   UNL     1       1.174  -2.415  -0.007  0.00  0.00    +0.000 A 
ATOM     22  C   UNL     1       2.529  -2.072  -0.007  0.00  0.00    +0.000 A 
ATOM     23  C   UNL     1       1.727  -4.613  -0.865  0.00  0.00    +0.000 A 
ATOM     24  C   UNL     1       3.465  -3.013  -0.444  0.00  0.00    +0.000 A 
ATOM     25  C   UNL     1       3.081  -4.276  -0.871  0.00  0.00    +0.000 A 
BRANCH  22  26
ATOM     26  O   UNL     1       3.056  -0.870   0.397  0.00  0.00    +0.000 OA
ATOM     27  C   UNL     1       2.134   0.106   0.861  0.00  0.00    +0.000 C 
ENDBRANCH  22  26
BRANCH  24  28
ATOM     28  O   UNL     1       4.799  -2.711  -0.458  0.00  0.00    +0.000 OA
ATOM     29  H   UNL     1       5.091  -1.866  -0.176  0.00  0.00    +0.000 HD
ENDBRANCH  24  28
ENDBRANCH  18  20
ENDBRANCH  17  19
ENDBRANCH   1  17
TORSDOF 10
