REMARK  Name = 5280343
REMARK  6 active torsions:
REMARK  status: ('A' for Active; 'I' for Inactive)
REMARK    1  A    between atoms: O_2  and  C_12
REMARK    2  A    between atoms: O_3  and  C_14
REMARK    3  A    between atoms: O_5  and  C_16
REMARK    4  A    between atoms: O_6  and  C_20
REMARK    5  A    between atoms: O_7  and  C_22
REMARK    6  A    between atoms: C_10  and  C_11
REMARK                            x       y       z     vdW  Elec       q    Type
REMARK                         _______ _______ _______ _____ _____    ______ ____
ROOT
ATOM      1  O   UNL     1       0.612   2.076   0.020  0.00  0.00    +0.000 OA
ATOM      2  O   UNL     1       1.967  -1.769   0.135  0.00  0.00    +0.000 OA
ATOM      3  C   UNL     1       0.089  -0.307   0.028  0.00  0.00    +0.000 A 
ATOM      4  C   UNL     1      -0.288   1.038   0.024  0.00  0.00    +0.000 A 
ATOM      5  C   UNL     1       1.959   1.777  -0.021  0.00  0.00    +0.000 A 
ATOM      6  C   UNL     1       2.477   0.535   0.008  0.00  0.00    +0.000 A 
ATOM      7  C   UNL     1       1.536  -0.624   0.063  0.00  0.00    +0.000 A 
ATOM      8  C   UNL     1      -0.911  -1.294   0.002  0.00  0.00    +0.000 A 
ATOM      9  C   UNL     1      -1.639   1.394   0.016  0.00  0.00    +0.000 A 
ATOM     10  C   UNL     1      -2.614   0.405  -0.004  0.00  0.00    +0.000 A 
ATOM     11  C   UNL     1      -2.263  -0.942  -0.015  0.00  0.00    +0.000 A 
ENDROOT
BRANCH   5  12
ATOM     12  C   UNL     1       2.821   2.964  -0.133  0.00  0.00    +0.000 A 
ATOM     13  C   UNL     1       3.333   3.590   1.014  0.00  0.00    +0.000 A 
ATOM     14  C   UNL     1       3.206   3.420  -1.406  0.00  0.00    +0.000 A 
ATOM     15  C   UNL     1       4.232   4.643   0.870  0.00  0.00    +0.000 A 
ATOM     16  C   UNL     1       4.108   4.477  -1.538  0.00  0.00    +0.000 A 
ATOM     17  C   UNL     1       4.619   5.074  -0.397  0.00  0.00    +0.000 A 
BRANCH  15  18
ATOM     18  O   UNL     1       4.783   5.280   1.948  0.00  0.00    +0.000 OA
ATOM     19  H   UNL     1       4.548   5.019   2.817  0.00  0.00    +0.000 HD
ENDBRANCH  15  18
BRANCH  17  20
ATOM     20  O   UNL     1       5.523   6.089  -0.528  0.00  0.00    +0.000 OA
ATOM     21  H   UNL     1       5.877   6.503   0.235  0.00  0.00    +0.000 HD
ENDBRANCH  17  20
ENDBRANCH   5  12
BRANCH   6  22
ATOM     22  O   UNL     1       3.834   0.253  -0.019  0.00  0.00    +0.000 OA
ATOM     23  H   UNL     1       4.457   0.952  -0.054  0.00  0.00    +0.000 HD
ENDBRANCH   6  22
BRANCH   8  24
ATOM     24  O   UNL     1      -0.584  -2.621  -0.019  0.00  0.00    +0.000 OA
ATOM     25  H   UNL     1       0.316  -2.882  -0.009  0.00  0.00    +0.000 HD
ENDBRANCH   8  24
BRANCH  10  26
ATOM     26  O   UNL     1      -3.919   0.798  -0.020  0.00  0.00    +0.000 OA
ATOM     27  H   UNL     1      -4.133   1.710  -0.012  0.00  0.00    +0.000 HD
ENDBRANCH  10  26
TORSDOF 6
