REMARK  Name = 445154
REMARK  5 active torsions:
REMARK  status: ('A' for Active; 'I' for Inactive)
REMARK    1  A    between atoms: O_1  and  C_10
REMARK    2  A    between atoms: O_2  and  C_11
REMARK    3  A    between atoms: O_3  and  C_17
REMARK    4  A    between atoms: C_4  and  C_6
REMARK    5  A    between atoms: C_5  and  C_7
REMARK                            x       y       z     vdW  Elec       q    Type
REMARK                         _______ _______ _______ _____ _____    ______ ____
ROOT
ATOM      1  C   UNL     1      -0.085   1.812   0.021  0.00  0.00    +0.000 A 
ATOM      2  C   UNL     1      -1.118   1.057  -0.555  0.00  0.00    +0.000 A 
ATOM      3  C   UNL     1       1.010   1.142   0.588  0.00  0.00    +0.000 A 
ATOM      4  C   UNL     1       1.047  -0.252   0.600  0.00  0.00    +0.000 A 
ATOM      5  C   UNL     1      -1.060  -0.336  -0.532  0.00  0.00    +0.000 A 
ATOM      6  C   UNL     1       0.016  -0.997   0.045  0.00  0.00    +0.000 A 
ENDROOT
BRANCH   4   7
ATOM      7  O   UNL     1       2.093  -0.930   1.154  0.00  0.00    +0.000 OA
ATOM      8  H   UNL     1       2.806  -0.458   1.538  0.00  0.00    +0.000 HD
ENDBRANCH   4   7
BRANCH   5   9
ATOM      9  O   UNL     1      -2.055  -1.095  -1.077  0.00  0.00    +0.000 OA
ATOM     10  H   UNL     1      -2.796  -0.681  -1.475  0.00  0.00    +0.000 HD
ENDBRANCH   5   9
BRANCH   1  11
ATOM     11  C   UNL     1      -0.078   3.286   0.002  0.00  0.00    +0.000 C 
ATOM     12  C   UNL     1      -1.180   4.053   0.028  0.00  0.00    +0.000 C 
BRANCH  12  13
ATOM     13  C   UNL     1      -1.175   5.526   0.022  0.00  0.00    +0.000 A 
ATOM     14  C   UNL     1      -0.161   6.279  -0.589  0.00  0.00    +0.000 A 
ATOM     15  C   UNL     1      -2.259   6.205   0.599  0.00  0.00    +0.000 A 
ATOM     16  C   UNL     1      -0.215   7.676  -0.601  0.00  0.00    +0.000 A 
ATOM     17  C   UNL     1      -2.315   7.601   0.586  0.00  0.00    +0.000 A 
ATOM     18  C   UNL     1      -1.293   8.325  -0.012  0.00  0.00    +0.000 A 
BRANCH  18  19
ATOM     19  O   UNL     1      -1.388   9.685  -0.007  0.00  0.00    +0.000 OA
ATOM     20  H   UNL     1      -0.715  10.203  -0.402  0.00  0.00    +0.000 HD
ENDBRANCH  18  19
ENDBRANCH  12  13
ENDBRANCH   1  11
TORSDOF 5
